<?xml version="1.0"?>
<VTKFile type="StructuredGrid">
<StructuredGrid WholeExtent="0 100 0 100 0 0">
<Piece Extent="0 100 0 100 0 0">
<Points>
<DataArray NumberOfComponents="3" type="Float32" format="ascii">
0 0 0
10 0 0
20 0 0
30 0 0
40 0 0
50 0 0
60 0 0
70 0 0
80 0 0
90 0 0
100 0 0
110 0 0
120 0 0
130 0 0
140 0 0
150 0 0
160 0 0
170 0 0
180 0 0
190 0 0
200 0 0
210 0 0
220 0 0
230 0 0
240 0 0
250 0 0
260 0 0
270 0 0
280 0 0
290 0 0
300 0 0
310 0 0
320 0 0
330 0 0
340 0 0
350 0 0
360 0 0
370 0 0
380 0 0
390 0 0
400 0 0
410 0 0
420 0 0
430 0 0
440 0 0
450 0 0
460 0 0
470 0 0
480 0 0
490 0 0
500 0 0
510 0 0
520 0 0
530 0 0
540 0 0
550 0 0
560 0 0
570 0 0
580 0 0
590 0 0
600 0 0
610 0 0
620 0 0
630 0 0
640 0 0
650 0 0
660 0 0
670 0 0
680 0 0
690 0 0
700 0 0
710 0 0
720 0 0
730 0 0
740 0 0
750 0 0
760 0 0
770 0 0
780 0 0
790 0 0
800 0 0
810 0 0
820 0 0
830 0 0
840 0 0
850 0 0
860 0 0
870 0 0
880 0 0
890 0 0
900 0 0
910 0 0
920 0 0
930 0 0
940 0 0
950 0 0
960 0 0
970 0 0
980 0 0
990 0 0
1000 0 0
0 10 0
10 10 0
20 10 0
30 10 0
40 10 0
50 10 0
60 10 0
70 10 0
80 10 0
90 10 0
100 10 0
110 10 0
120 10 0
130 10 0
140 10 0
150 10 0
160 10 0
170 10 0
180 10 0
190 10 0
200 10 0
210 10 0
220 10 0
230 10 0
240 10 0
250 10 0
260 10 0
270 10 0
280 10 0
290 10 0
300 10 0
310 10 0
320 10 0
330 10 0
340 10 0
350 10 0
360 10 0
370 10 0
380 10 0
390 10 0
400 10 0
410 10 0
420 10 0
430 10 0
440 10 0
450 10 0
460 10 0
470 10 0
480 10 0
490 10 0
500 10 0
510 10 0
520 10 0
530 10 0
540 10 0
550 10 0
560 10 0
570 10 0
580 10 0
590 10 0
600 10 0
610 10 0
620 10 0
630 10 0
640 10 0
650 10 0
660 10 0
670 10 0
680 10 0
690 10 0
700 10 0
710 10 0
720 10 0
730 10 0
740 10 0
750 10 0
760 10 0
770 10 0
780 10 0
790 10 0
800 10 0
810 10 0
820 10 0
830 10 0
840 10 0
850 10 0
860 10 0
870 10 0
880 10 0
890 10 0
900 10 0
910 10 0
920 10 0
930 10 0
940 10 0
950 10 0
960 10 0
970 10 0
980 10 0
990 10 0
1000 10 0
0 20 0
10 20 0
20 20 0
30 20 0
40 20 0
50 20 0
60 20 0
70 20 0
80 20 0
90 20 0
100 20 0
110 20 0
120 20 0
130 20 0
140 20 0
150 20 0
160 20 0
170 20 0
180 20 0
190 20 0
200 20 0
210 20 0
220 20 0
230 20 0
240 20 0
250 20 0
260 20 0
270 20 0
280 20 0
290 20 0
300 20 0
310 20 0
320 20 0
330 20 0
340 20 0
350 20 0
360 20 0
370 20 0
380 20 0
390 20 0
400 20 0
410 20 0
420 20 0
430 20 0
440 20 0
450 20 0
460 20 0
470 20 0
480 20 0
490 20 0
500 20 0
510 20 0
520 20 0
530 20 0
540 20 0
550 20 0
560 20 0
570 20 0
580 20 0
590 20 0
600 20 0
610 20 0
620 20 0
630 20 0
640 20 0
650 20 0
660 20 0
670 20 0
680 20 0
690 20 0
700 20 0
710 20 0
720 20 0
730 20 0
740 20 0
750 20 0
760 20 0
770 20 0
780 20 0
790 20 0
800 20 0
810 20 0
820 20 0
830 20 0
840 20 0
850 20 0
860 20 0
870 20 0
880 20 0
890 20 0
900 20 0
910 20 0
920 20 0
930 20 0
940 20 0
950 20 0
960 20 0
970 20 0
980 20 0
990 20 0
1000 20 0
0 30 0
10 30 0
20 30 0
30 30 0
40 30 0
50 30 0
60 30 0
70 30 0
80 30 0
90 30 0
100 30 0
110 30 0
120 30 0
130 30 0
140 30 0
150 30 0
160 30 0
170 30 0
180 30 0
190 30 0
200 30 0
210 30 0
220 30 0
230 30 0
240 30 0
250 30 0
260 30 0
270 30 0
280 30 0
290 30 0
300 30 0
310 30 0
320 30 0
330 30 0
340 30 0
350 30 0
360 30 0
370 30 0
380 30 0
390 30 0
400 30 0
410 30 0
420 30 0
430 30 0
440 30 0
450 30 0
460 30 0
470 30 0
480 30 0
490 30 0
500 30 0
510 30 0
520 30 0
530 30 0
540 30 0
550 30 0
560 30 0
570 30 0
580 30 0
590 30 0
600 30 0
610 30 0
620 30 0
630 30 0
640 30 0
650 30 0
660 30 0
670 30 0
680 30 0
690 30 0
700 30 0
710 30 0
720 30 0
730 30 0
740 30 0
750 30 0
760 30 0
770 30 0
780 30 0
790 30 0
800 30 0
810 30 0
820 30 0
830 30 0
840 30 0
850 30 0
860 30 0
870 30 0
880 30 0
890 30 0
900 30 0
910 30 0
920 30 0
930 30 0
940 30 0
950 30 0
960 30 0
970 30 0
980 30 0
990 30 0
1000 30 0
0 40 0
10 40 0
20 40 0
30 40 0
40 40 0
50 40 0
60 40 0
70 40 0
80 40 0
90 40 0
100 40 0
110 40 0
120 40 0
130 40 0
140 40 0
150 40 0
160 40 0
170 40 0
180 40 0
190 40 0
200 40 0
210 40 0
220 40 0
230 40 0
240 40 0
250 40 0
260 40 0
270 40 0
280 40 0
290 40 0
300 40 0
310 40 0
320 40 0
330 40 0
340 40 0
350 40 0
360 40 0
370 40 0
380 40 0
390 40 0
400 40 0
410 40 0
420 40 0
430 40 0
440 40 0
450 40 0
460 40 0
470 40 0
480 40 0
490 40 0
500 40 0
510 40 0
520 40 0
530 40 0
540 40 0
550 40 0
560 40 0
570 40 0
580 40 0
590 40 0
600 40 0
610 40 0
620 40 0
630 40 0
640 40 0
650 40 0
660 40 0
670 40 0
680 40 0
690 40 0
700 40 0
710 40 0
720 40 0
730 40 0
740 40 0
750 40 0
760 40 0
770 40 0
780 40 0
790 40 0
800 40 0
810 40 0
820 40 0
830 40 0
840 40 0
850 40 0
860 40 0
870 40 0
880 40 0
890 40 0
900 40 0
910 40 0
920 40 0
930 40 0
940 40 0
950 40 0
960 40 0
970 40 0
980 40 0
990 40 0
1000 40 0
0 50 0
10 50 0
20 50 0
30 50 0
40 50 0
50 50 0
60 50 0
70 50 0
80 50 0
90 50 0
100 50 0
110 50 0
120 50 0
130 50 0
140 50 0
150 50 0
160 50 0
170 50 0
180 50 0
190 50 0
200 50 0
210 50 0
220 50 0
230 50 0
240 50 0
250 50 0
260 50 0
270 50 0
280 50 0
290 50 0
300 50 0
310 50 0
320 50 0
330 50 0
340 50 0
350 50 0
360 50 0
370 50 0
380 50 0
390 50 0
400 50 0
410 50 0
420 50 0
430 50 0
440 50 0
450 50 0
460 50 0
470 50 0
480 50 0
490 50 0
500 50 0
510 50 0
520 50 0
530 50 0
540 50 0
550 50 0
560 50 0
570 50 0
580 50 0
590 50 0
600 50 0
610 50 0
620 50 0
630 50 0
640 50 0
650 50 0
660 50 0
670 50 0
680 50 0
690 50 0
700 50 0
710 50 0
720 50 0
730 50 0
740 50 0
750 50 0
760 50 0
770 50 0
780 50 0
790 50 0
800 50 0
810 50 0
820 50 0
830 50 0
840 50 0
850 50 0
860 50 0
870 50 0
880 50 0
890 50 0
900 50 0
910 50 0
920 50 0
930 50 0
940 50 0
950 50 0
960 50 0
970 50 0
980 50 0
990 50 0
1000 50 0
0 60 0
10 60 0
20 60 0
30 60 0
40 60 0
50 60 0
60 60 0
70 60 0
80 60 0
90 60 0
100 60 0
110 60 0
120 60 0
130 60 0
140 60 0
150 60 0
160 60 0
170 60 0
180 60 0
190 60 0
200 60 0
210 60 0
220 60 0
230 60 0
240 60 0
250 60 0
260 60 0
270 60 0
280 60 0
290 60 0
300 60 0
310 60 0
320 60 0
330 60 0
340 60 0
350 60 0
360 60 0
370 60 0
380 60 0
390 60 0
400 60 0
410 60 0
420 60 0
430 60 0
440 60 0
450 60 0
460 60 0
470 60 0
480 60 0
490 60 0
500 60 0
510 60 0
520 60 0
530 60 0
540 60 0
550 60 0
560 60 0
570 60 0
580 60 0
590 60 0
600 60 0
610 60 0
620 60 0
630 60 0
640 60 0
650 60 0
660 60 0
670 60 0
680 60 0
690 60 0
700 60 0
710 60 0
720 60 0
730 60 0
740 60 0
750 60 0
760 60 0
770 60 0
780 60 0
790 60 0
800 60 0
810 60 0
820 60 0
830 60 0
840 60 0
850 60 0
860 60 0
870 60 0
880 60 0
890 60 0
900 60 0
910 60 0
920 60 0
930 60 0
940 60 0
950 60 0
960 60 0
970 60 0
980 60 0
990 60 0
1000 60 0
0 70 0
10 70 0
20 70 0
30 70 0
40 70 0
50 70 0
60 70 0
70 70 0
80 70 0
90 70 0
100 70 0
110 70 0
120 70 0
130 70 0
140 70 0
150 70 0
160 70 0
170 70 0
180 70 0
190 70 0
200 70 0
210 70 0
220 70 0
230 70 0
240 70 0
250 70 0
260 70 0
270 70 0
280 70 0
290 70 0
300 70 0
310 70 0
320 70 0
330 70 0
340 70 0
350 70 0
360 70 0
370 70 0
380 70 0
390 70 0
400 70 0
410 70 0
420 70 0
430 70 0
440 70 0
450 70 0
460 70 0
470 70 0
480 70 0
490 70 0
500 70 0
510 70 0
520 70 0
530 70 0
540 70 0
550 70 0
560 70 0
570 70 0
580 70 0
590 70 0
600 70 0
610 70 0
620 70 0
630 70 0
640 70 0
650 70 0
660 70 0
670 70 0
680 70 0
690 70 0
700 70 0
710 70 0
720 70 0
730 70 0
740 70 0
750 70 0
760 70 0
770 70 0
780 70 0
790 70 0
800 70 0
810 70 0
820 70 0
830 70 0
840 70 0
850 70 0
860 70 0
870 70 0
880 70 0
890 70 0
900 70 0
910 70 0
920 70 0
930 70 0
940 70 0
950 70 0
960 70 0
970 70 0
980 70 0
990 70 0
1000 70 0
0 80 0
10 80 0
20 80 0
30 80 0
40 80 0
50 80 0
60 80 0
70 80 0
80 80 0
90 80 0
100 80 0
110 80 0
120 80 0
130 80 0
140 80 0
150 80 0
160 80 0
170 80 0
180 80 0
190 80 0
200 80 0
210 80 0
220 80 0
230 80 0
240 80 0
250 80 0
260 80 0
270 80 0
280 80 0
290 80 0
300 80 0
310 80 0
320 80 0
330 80 0
340 80 0
350 80 0
360 80 0
370 80 0
380 80 0
390 80 0
400 80 0
410 80 0
420 80 0
430 80 0
440 80 0
450 80 0
460 80 0
470 80 0
480 80 0
490 80 0
500 80 0
510 80 0
520 80 0
530 80 0
540 80 0
550 80 0
560 80 0
570 80 0
580 80 0
590 80 0
600 80 0
610 80 0
620 80 0
630 80 0
640 80 0
650 80 0
660 80 0
670 80 0
680 80 0
690 80 0
700 80 0
710 80 0
720 80 0
730 80 0
740 80 0
750 80 0
760 80 0
770 80 0
780 80 0
790 80 0
800 80 0
810 80 0
820 80 0
830 80 0
840 80 0
850 80 0
860 80 0
870 80 0
880 80 0
890 80 0
900 80 0
910 80 0
920 80 0
930 80 0
940 80 0
950 80 0
960 80 0
970 80 0
980 80 0
990 80 0
1000 80 0
0 90 0
10 90 0
20 90 0
30 90 0
40 90 0
50 90 0
60 90 0
70 90 0
80 90 0
90 90 0
100 90 0
110 90 0
120 90 0
130 90 0
140 90 0
150 90 0
160 90 0
170 90 0
180 90 0
190 90 0
200 90 0
210 90 0
220 90 0
230 90 0
240 90 0
250 90 0
260 90 0
270 90 0
280 90 0
290 90 0
300 90 0
310 90 0
320 90 0
330 90 0
340 90 0
350 90 0
360 90 0
370 90 0
380 90 0
390 90 0
400 90 0
410 90 0
420 90 0
430 90 0
440 90 0
450 90 0
460 90 0
470 90 0
480 90 0
490 90 0
500 90 0
510 90 0
520 90 0
530 90 0
540 90 0
550 90 0
560 90 0
570 90 0
580 90 0
590 90 0
600 90 0
610 90 0
620 90 0
630 90 0
640 90 0
650 90 0
660 90 0
670 90 0
680 90 0
690 90 0
700 90 0
710 90 0
720 90 0
730 90 0
740 90 0
750 90 0
760 90 0
770 90 0
780 90 0
790 90 0
800 90 0
810 90 0
820 90 0
830 90 0
840 90 0
850 90 0
860 90 0
870 90 0
880 90 0
890 90 0
900 90 0
910 90 0
920 90 0
930 90 0
940 90 0
950 90 0
960 90 0
970 90 0
980 90 0
990 90 0
1000 90 0
0 100 0
10 100 0
20 100 0
30 100 0
40 100 0
50 100 0
60 100 0
70 100 0
80 100 0
90 100 0
100 100 0
110 100 0
120 100 0
130 100 0
140 100 0
150 100 0
160 100 0
170 100 0
180 100 0
190 100 0
200 100 0
210 100 0
220 100 0
230 100 0
240 100 0
250 100 0
260 100 0
270 100 0
280 100 0
290 100 0
300 100 0
310 100 0
320 100 0
330 100 0
340 100 0
350 100 0
360 100 0
370 100 0
380 100 0
390 100 0
400 100 0
410 100 0
420 100 0
430 100 0
440 100 0
450 100 0
460 100 0
470 100 0
480 100 0
490 100 0
500 100 0
510 100 0
520 100 0
530 100 0
540 100 0
550 100 0
560 100 0
570 100 0
580 100 0
590 100 0
600 100 0
610 100 0
620 100 0
630 100 0
640 100 0
650 100 0
660 100 0
670 100 0
680 100 0
690 100 0
700 100 0
710 100 0
720 100 0
730 100 0
740 100 0
750 100 0
760 100 0
770 100 0
780 100 0
790 100 0
800 100 0
810 100 0
820 100 0
830 100 0
840 100 0
850 100 0
860 100 0
870 100 0
880 100 0
890 100 0
900 100 0
[...]
<CellData>
<DataArray Name="h" type="Float32" format="ascii">
260.002
260.003
260.005
260.008
260.012
260.017
260.025
260.034
260.046
260.06
260.076
260.095
260.116
260.137
260.16
260.182
260.202
260.221
260.237
260.249
260.258
260.263
260.263
260.26
260.253
260.243
260.23
260.216
260.199
260.182
260.165
260.148
260.131
260.115
260.099
260.085
260.072
260.06
260.049
260.04
260.031
260.024
260.018
260.012
260.007
260.004
260.001
259.999
259.997
259.997
259.997
259.997
259.999
260.001
260.004
260.008
260.012
260.018
260.024
260.031
260.04
260.049
260.06
260.072
260.085
260.099
260.115
260.131
260.148
260.165
260.182
260.199
260.216
260.23
260.243
260.253
260.26
260.263
260.263
260.258
260.249
260.237
260.221
260.202
260.182
260.16
260.137
260.116
260.095
260.076
260.06
260.046
260.034
260.025
260.017
260.012
260.008
260.005
260.003
260.002
260.003
260.005
260.008
260.011
260.017
260.024
260.033
260.045
260.059
260.076
260.095
260.116
260.139
260.162
260.185
260.207
260.227
260.243
260.256
260.265
260.269
260.268
260.263
260.255
260.242
260.227
260.21
260.191
260.171
260.151
260.131
260.112
260.094
260.076
260.061
260.046
260.033
260.021
260.011
260.002
259.994
259.987
259.981
259.976
259.972
259.969
259.966
259.964
259.963
259.962
259.962
259.963
259.964
259.966
259.969
259.972
259.976
259.981
259.987
259.994
260.002
260.011
260.021
260.033
260.046
260.061
260.076
260.094
260.112
260.131
260.151
260.171
260.191
260.21
260.227
260.242
260.255
260.263
260.268
260.269
260.265
260.256
260.243
260.227
260.207
260.185
260.162
260.139
260.116
260.095
260.076
260.059
260.045
260.033
260.024
260.017
260.011
260.008
260.005
260.003
260.005
260.008
260.011
260.016
260.024
260.033
260.045
260.059
260.076
260.096
260.118
260.141
260.165
260.188
260.21
260.23
260.247
260.26
260.268
260.272
260.27
260.264
260.253
260.239
260.221
260.202
260.18
260.158
260.136
260.114
260.092
260.072
260.054
260.036
260.021
260.007
259.995
259.984
259.974
259.966
259.959
259.953
259.948
259.944
259.94
259.938
259.936
259.934
259.933
259.932
259.932
259.933
259.934
259.936
259.938
259.94
259.944
259.948
259.953
259.959
259.966
259.974
259.984
259.995
260.007
260.021
260.036
260.054
260.072
260.092
260.114
260.136
260.158
260.18
260.202
260.221
260.239
260.253
260.264
260.27
260.272
260.268
260.26
260.247
260.23
260.21
260.188
260.165
260.141
260.118
260.096
260.076
260.059
260.045
260.033
260.024
260.016
260.011
260.008
260.005
260.008
260.011
260.016
260.024
260.033
260.045
260.059
260.077
260.097
260.119
260.142
260.167
260.191
260.213
260.234
260.25
260.263
260.27
260.273
260.27
260.262
260.249
260.233
260.213
260.191
260.167
260.143
260.119
260.095
260.072
260.051
260.031
260.013
259.997
259.983
259.97
259.96
259.95
259.942
259.935
259.929
259.924
259.92
259.917
259.914
259.912
259.911
259.91
259.909
259.908
259.908
259.909
259.91
259.911
259.912
259.914
259.917
259.92
259.924
259.929
259.935
259.942
259.95
259.96
259.97
259.983
259.997
260.013
260.031
260.051
260.072
260.095
260.119
260.143
260.167
260.191
260.213
260.233
260.249
260.262
260.27
260.273
260.27
260.263
260.25
260.234
260.213
260.191
260.167
260.142
260.119
260.097
260.077
260.059
260.045
260.033
260.024
260.016
260.011
260.008
260.012
260.017
260.024
260.033
260.045
260.06
260.077
260.098
260.12
260.144
260.169
260.193
260.216
260.236
260.253
260.265
260.271
260.272
260.268
260.258
260.243
260.225
260.203
260.179
260.153
260.127
260.101
260.076
260.052
260.03
260.009
259.991
259.975
259.961
259.949
259.938
259.929
259.922
259.915
259.91
259.906
259.902
259.899
259.897
259.895
259.893
259.892
259.892
259.891
259.891
259.891
259.891
259.892
259.892
259.893
259.895
259.897
259.899
259.902
259.906
259.91
259.915
259.922
259.929
259.938
259.949
259.961
259.975
259.991
260.009
260.03
260.052
260.076
260.101
260.127
260.153
260.179
260.203
260.225
260.243
260.258
260.268
260.272
260.271
260.265
260.253
260.236
260.216
260.193
260.169
260.144
260.12
260.098
260.077
260.06
260.045
260.033
260.024
260.017
260.012
260.017
260.024
260.033
260.045
260.06
260.077
260.098
260.121
260.146
260.171
260.196
260.219
260.239
260.255
260.266
260.272
260.272
260.265
260.253
260.237
260.216
260.191
260.165
260.137
260.11
260.082
260.056
260.031
260.009
259.989
259.971
259.955
259.941
259.93
259.92
259.912
259.905
259.899
259.895
259.891
259.888
259.886
259.884
259.883
259.882
259.881
259.88
259.88
259.88
259.88
259.88
259.88
259.88
259.88
259.881
259.882
259.883
259.884
259.886
259.888
259.891
259.895
259.899
259.905
259.912
259.92
259.93
259.941
259.955
259.971
259.989
260.009
260.031
260.056
260.082
260.11
260.137
260.165
260.191
260.216
260.237
260.253
260.265
260.272
260.272
260.266
260.255
260.239
260.219
260.196
260.171
260.146
260.121
260.098
260.077
260.06
260.045
260.033
260.024
260.017
260.025
260.033
260.045
260.059
260.077
260.098
260.121
260.146
260.172
260.197
260.221
260.241
260.257
260.268
260.272
260.271
260.263
260.249
260.23
260.207
260.18
260.151
260.122
260.092
260.064
260.036
260.011
259.989
259.969
259.951
259.936
259.924
259.913
259.904
259.897
259.892
259.887
259.884
259.881
259.879
259.878
259.877
259.876
259.875
259.875
259.875
259.875
259.874
259.874
259.874
259.874
259.874
259.874
259.875
259.875
259.875
259.875
259.876
259.877
259.878
259.879
259.881
259.884
259.887
259.892
259.897
259.904
259.913
259.924
259.936
259.951
259.969
259.989
260.011
260.036
260.064
260.092
260.122
260.151
260.18
260.207
260.23
260.249
260.263
260.271
260.272
260.268
260.257
260.241
260.221
260.197
260.172
260.146
260.121
260.098
260.077
260.059
260.045
260.033
260.025
260.034
260.045
260.059
260.077
260.098
260.121
260.146
260.172
260.198
260.222
260.243
260.259
260.269
260.273
260.27
260.261
260.245
260.224
260.198
260.169
260.138
260.107
260.076
260.046
260.018
259.992
259.97
259.95
259.934
259.92
259.908
259.899
259.892
259.886
259.882
259.879
259.876
259.875
259.874
259.873
259.873
259.873
259.873
259.873
259.873
259.874
259.874
259.874
259.874
259.874
259.874
259.874
259.874
259.874
259.874
259.873
259.873
259.873
259.873
259.873
259.873
259.874
259.875
259.876
259.879
259.882
259.886
259.892
259.899
259.908
259.92
259.934
259.95
259.97
259.992
260.018
260.046
260.076
260.107
260.138
260.169
260.198
260.224
260.245
260.261
260.27
260.273
260.269
260.259
260.243
260.222
260.198
260.172
260.146
260.121
260.098
260.077
260.059
260.045
260.034
260.046
260.059
260.076
260.097
260.12
260.146
260.172
260.198
260.222
260.243
260.26
260.27
260.273
260.27
260.259
260.241
260.218
260.191
260.16
260.127
260.093
260.061
260.029
260.001
259.975
259.953
259.933
259.918
259.905
259.895
259.887
259.881
259.877
259.874
259.873
259.872
259.871
259.871
259.872
259.872
259.873
259.874
259.875
259.876
259.876
259.877
259.877
259.878
259.878
259.878
259.878
259.878
259.878
259.877
259.877
259.876
259.876
259.875
259.874
259.873
259.872
259.872
259.871
259.871
259.872
259.873
259.874
259.877
259.881
259.887
259.895
259.905
259.918
259.934
259.953
259.975
260.001
260.029
260.061
260.093
260.127
260.16
260.191
260.218
260.241
260.259
260.27
260.273
260.27
260.26
260.243
260.222
260.198
260.172
260.146
260.12
260.097
260.076
260.059
260.046
260.06
260.076
260.096
260.119
260.144
260.171
260.197
260.222
260.243
260.26
260.27
260.274
260.269
260.258
260.239
260.214
260.185
260.152
260.117
260.082
260.047
260.015
259.985
259.959
259.937
259.919
259.904
259.892
259.883
259.877
259.873
259.871
259.869
259.869
259.869
259.87
259.872
259.873
259.875
259.876
259.877
259.879
259.88
259.881
259.882
259.883
259.884
259.884
259.885
259.885
259.885
259.885
259.884
259.884
259.883
259.882
259.881
259.88
259.879
259.877
259.876
259.875
259.873
259.872
259.87
259.869
259.869
259.869
259.871
259.873
259.877
259.883
259.892
259.904
259.919
259.937
259.959
259.985
260.015
260.047
260.082
260.117
260.152
260.185
260.214
260.239
260.258
260.269
260.274
260.27
260.26
260.243
260.222
260.197
260.171
260.144
260.119
260.096
260.076
260.06
260.076
260.095
260.118
260.142
260.169
260.196
260.221
260.243
260.26
260.27
260.274
260.269
260.257
260.237
260.211
260.18
260.145
260.109
260.072
260.036
260.002
259.972
259.946
259.924
259.906
259.892
259.881
259.874
259.869
259.867
259.866
259.866
259.867
259.869
259.871
259.873
259.876
259.878
259.88
259.882
259.884
259.886
259.888
259.889
259.89
259.891
259.892
259.893
259.893
259.893
259.893
259.893
259.893
259.892
259.891
259.89
259.889
259.888
259.886
259.884
259.882
259.88
259.878
259.876
259.873
259.871
259.869
259.867
259.866
259.866
259.867
259.869
259.874
259.881
259.892
259.906
259.924
259.946
259.972
260.002
260.036
260.072
260.109
260.145
260.18
260.211
260.237
260.257
260.269
260.274
260.27
260.26
260.243
260.221
260.196
260.169
260.142
260.118
260.095
260.076
260.095
260.116
260.141
260.167
260.193
260.219
260.241
260.259
260.27
260.274
260.269
260.257
260.236
260.209
260.177
260.141
260.103
260.064
260.027
259.992
259.961
259.935
259.913
259.895
259.882
259.872
259.866
259.863
259.862
259.862
259.864
259.867
259.87
259.873
259.876
259.88
259.883
259.886
259.888
259.891
259.893
259.895
259.896
259.898
259.899
259.9
259.901
259.902
259.902
259.902
259.902
259.902
259.902
259.901
259.9
259.899
259.898
259.896
259.895
259.893
259.891
259.888
259.886
259.883
259.88
259.876
259.873
259.87
259.867
259.864
259.862
259.862
259.863
259.866
259.872
259.882
259.895
259.913
259.935
259.961
259.992
260.027
260.064
260.103
260.141
260.177
260.209
260.236
260.257
260.269
260.274
260.27
260.259
260.241
260.219
260.193
260.167
260.141
260.116
260.095
260.116
260.139
260.165
260.191
260.216
260.239
260.257
260.269
260.273
260.269
260.257
260.236
260.209
260.176
260.138
260.099
260.059
260.02
259.985
259.953
259.926
259.904
259.886
259.874
259.865
259.86
259.858
259.859
259.861
259.864
259.867
259.871
259.876
259.88
259.884
259.888
259.891
259.894
259.897
259.9
259.902
259.904
259.906
259.907
259.908
259.909
259.91
259.911
259.911
259.911
259.911
259.911
259.911
259.91
259.909
259.908
259.907
259.906
259.904
259.902
259.9
259.897
259.894
259.891
259.888
259.884
259.88
259.876
259.871
259.867
259.864
259.861
259.859
259.858
259.86
259.865
259.874
259.886
259.904
259.926
259.953
259.985
260.02
260.059
260.099
260.138
260.176
260.209
260.237
260.257
260.269
260.273
260.269
260.257
260.239
260.216
260.191
260.165
260.139
260.116
260.137
260.162
260.188
260.213
260.236
260.255
260.268
260.273
260.27
260.258
260.237
260.209
260.176
260.137
260.097
260.055
260.016
259.979
259.947
259.919
259.897
259.88
259.867
259.86
259.856
259.855
259.857
259.86
259.864
259.869
259.874
259.879
259.884
259.889
259.893
259.897
259.9
259.904
259.906
259.909
259.911
259.913
259.915
259.916
259.917
259.918
259.919
259.919
259.92
259.92
259.92
259.92
259.919
259.919
259.918
259.917
259.916
259.915
259.913
259.911
259.909
259.906
259.904
259.9
259.897
259.893
259.889
259.884
259.879
259.874
259.869
259.864
259.86
259.856
259.855
259.856
259.86
259.867
259.88
259.897
259.919
259.946
259.979
260.016
260.055
260.097
260.137
260.176
260.21
260.237
260.258
260.27
260.273
260.268
260.255
260.236
260.213
260.188
260.162
260.137
260.16
260.185
260.21
260.234
260.253
260.266
260.272
260.27
260.259
260.239
260.211
260.177
260.138
260.097
260.054
260.014
259.976
259.942
259.914
259.892
259.875
259.863
259.856
259.853
259.853
259.855
259.859
259.865
259.87
259.876
259.882
259.888
259.893
259.898
259.902
259.906
259.91
259.913
259.915
259.918
259.92
259.921
259.923
259.924
259.925
259.926
259.927
259.927
259.928
259.928
259.928
259.928
259.927
259.927
259.926
259.925
259.924
259.923
259.921
259.92
259.918
259.915
259.913
259.91
259.906
259.902
259.898
259.893
259.888
259.882
259.876
259.87
259.865
259.859
259.855
259.853
259.853
259.856
259.863
259.875
259.892
259.914
259.942
259.976
260.014
260.054
260.097
260.138
260.177
260.211
260.239
260.259
260.27
260.272
260.266
260.253
260.234
260.21
260.185
260.16
260.182
260.207
260.23
260.25
260.265
260.272
260.271
260.261
260.241
260.214
260.18
260.141
260.099
260.055
260.014
259.975
259.94
259.911
259.888
259.871
259.86
259.853
259.851
259.851
259.855
259.86
259.866
259.872
259.879
259.886
259.892
259.897
259.902
259.907
259.911
259.915
259.918
259.921
259.923
259.925
259.927
259.929
259.93
259.931
259.932
259.933
259.934
259.934
259.935
259.935
259.935
259.935
259.934
259.934
259.933
259.932
259.931
259.93
259.929
259.927
259.925
259.923
259.921
259.918
259.915
259.911
259.907
259.902
259.897
259.892
259.885
259.879
259.872
259.866
259.86
259.855
259.851
259.851
259.853
259.86
259.871
259.888
259.911
259.94
259.975
260.014
260.055
260.099
260.141
260.18
260.214
260.241
260.261
260.271
260.272
260.265
260.25
260.23
260.207
260.182
260.202
260.226
260.247
260.263
260.271
260.272
260.263
260.245
260.218
260.185
260.145
260.103
260.059
260.016
259.976
259.94
259.91
259.887
259.869
259.857
259.851
259.849
259.851
259.855
259.86
259.867
259.874
259.882
259.889
259.895
259.901
259.907
259.911
259.916
259.92
259.923
259.926
259.928
259.93
259.932
259.934
259.935
259.937
259.938
259.938
259.939
259.94
259.94
259.941
259.941
259.941
259.941
259.94
259.94
259.939
259.938
259.938
259.936
259.935
259.934
259.932
259.93
259.928
259.926
259.923
259.92
259.916
259.911
259.907
259.901
259.895
259.889
259.882
259.874
259.867
259.86
259.855
259.851
259.849
259.851
259.857
259.869
259.887
259.91
259.94
259.976
260.016
260.059
260.103
260.145
260.185
260.218
260.245
260.263
260.272
260.271
260.263
260.247
260.226
260.202
260.221
260.243
260.26
260.27
260.272
260.265
260.249
260.224
260.191
260.152
260.109
260.064
260.02
259.979
259.942
259.911
259.887
259.868
259.856
259.85
259.848
259.85
259.855
259.861
259.869
259.876
259.884
259.892
259.898
259.905
259.91
259.915
259.92
259.924
259.927
259.93
259.932
259.935
259.937
259.938
259.94
259.941
259.942
259.943
259.944
259.944
259.945
259.945
259.946
259.946
259.946
259.946
259.945
259.945
259.944
259.944
259.943
259.942
259.941
259.94
259.938
259.937
259.935
259.932
259.93
259.927
259.924
259.92
259.915
259.91
259.905
259.898
259.892
259.884
259.876
259.869
259.861
259.855
259.85
259.848
259.85
259.856
259.868
259.887
259.911
259.942
259.979
260.02
260.064
260.109
260.152
260.191
260.224
260.249
260.265
260.272
260.27
260.26
260.243
260.221
260.237
260.256
260.268
260.273
260.268
260.253
260.23
260.198
260.16
260.117
260.072
260.027
259.985
259.946
259.914
259.888
259.869
259.856
259.85
259.848
259.85
259.855
259.862
259.87
259.878
259.886
259.894
259.901
259.908
259.914
259.919
259.923
259.927
259.93
259.933
259.936
259.938
259.94
259.942
259.943
259.944
259.946
259.946
259.947
259.948
259.949
259.949
259.949
259.95
259.95
259.95
259.95
259.949
259.949
259.949
259.948
259.947
259.946
259.946
259.944
259.943
259.942
259.94
259.938
259.936
259.933
259.93
259.927
259.923
259.919
259.914
259.908
259.901
259.894
259.886
259.878
259.87
259.862
259.855
259.85
259.848
259.85
259.856
259.869
259.888
259.914
259.946
259.985
260.027
260.072
260.117
260.16
260.198
260.23
260.253
260.268
260.273
260.268
260.256
260.237
260.249
260.265
260.272
260.27
260.258
260.237
260.207
260.169
260.127
260.081
260.036
259.992
259.953
259.919
259.891
259.871
259.857
259.85
259.848
259.85
259.855
259.862
259.871
259.879
259.888
259.896
259.904
259.91
259.916
259.922
259.926
259.93
259.933
259.936
259.939
259.941
259.943
259.945
259.946
259.947
259.949
259.949
259.95
259.951
259.952
259.952
259.953
259.953
259.953
259.953
259.953
259.953
259.953
259.953
259.952
259.951
259.951
259.95
259.949
259.949
259.947
259.946
259.945
259.943
259.941
259.939
259.936
259.933
259.93
259.926
259.922
259.916
259.91
259.904
259.896
259.888
259.879
259.871
259.862
259.855
259.85
259.848
259.85
259.857
259.871
259.891
259.919
259.953
259.992
260.036
260.081
260.127
260.169
260.207
260.237
260.258
260.27
260.272
260.265
260.249
260.258
260.269
260.27
260.262
260.243
260.216
260.18
260.138
260.093
260.047
260.002
259.961
259.926
259.897
259.875
259.86
259.851
259.848
259.85
259.855
259.862
259.871
259.88
259.889
259.898
259.905
259.912
259.918
259.924
259.928
259.932
259.936
259.939
259.941
259.944
259.946
259.947
259.949
259.95
259.951
259.952
259.953
259.953
259.954
259.955
259.955
259.956
259.956
259.956
259.956
259.956
259.956
259.956
259.956
259.955
259.955
259.954
259.953
259.953
259.952
259.951
259.95
259.949
259.947
259.946
259.944
259.941
259.939
259.936
259.932
259.928
259.924
259.918
259.912
259.905
259.898
259.889
259.88
259.871
259.862
259.855
259.85
259.848
259.851
259.86
259.875
259.897
259.926
259.961
260.002
260.047
260.093
260.138
260.18
260.216
260.243
260.262
260.27
260.269
260.258
260.263
260.268
260.264
260.249
260.225
260.191
260.151
260.107
260.06
260.015
259.972
259.935
259.904
259.88
259.863
259.853
259.849
259.85
259.855
259.862
259.871
259.88
259.89
259.898
259.907
259.914
259.92
259.926
259.93
259.934
259.938
259.941
259.943
259.946
259.947
259.949
259.951
259.952
259.953
259.954
259.955
259.956
259.956
259.957
259.957
259.958
259.958
259.959
259.959
259.959
259.959
259.959
259.959
259.958
259.958
259.957
259.957
259.956
259.956
259.955
259.954
259.953
259.952
259.951
259.949
259.947
259.946
259.943
259.941
259.938
259.934
259.93
259.926
259.92
259.914
259.907
259.898
259.89
259.88
259.871
259.862
259.855
259.85
259.849
259.853
259.863
259.88
259.904
259.935
259.972
260.015
260.061
260.107
260.151
260.191
260.225
260.249
260.264
260.268
260.263
260.263
260.263
260.253
260.233
260.203
260.165
260.122
260.076
260.029
259.985
259.946
259.913
259.886
259.867
259.856
259.851
259.851
259.855
259.862
259.871
259.88
259.89
259.899
259.907
259.915
259.921
259.927
259.932
259.936
259.939
259.942
259.945
259.947
259.949
259.951
259.952
259.954
259.955
259.956
259.957
259.957
259.958
259.958
259.959
259.959
259.96
259.961
259.961
259.961
259.961
259.961
259.961
259.961
259.961
259.96
259.959
259.959
259.958
259.958
259.957
259.957
259.956
259.955
259.954
259.952
259.951
259.949
259.947
259.945
259.942
259.939
259.936
259.932
259.927
259.921
259.915
259.907
259.899
259.89
259.88
259.871
259.862
259.855
259.851
259.851
259.856
259.867
259.886
259.913
259.946
259.985
260.029
260.076
260.122
260.165
260.203
260.233
260.253
260.264
260.263
260.26
260.255
260.239
260.213
260.178
260.137
260.092
260.046
260.001
259.959
259.924
259.895
259.874
259.86
259.853
259.851
259.855
259.861
259.87
259.879
259.889
259.898
259.907
259.915
259.922
259.927
259.932
259.937
259.94
259.943
259.946
259.948
259.95
259.952
259.954
259.955
259.956
259.957
259.958
259.959
259.959
259.96
259.961
259.961
259.961
259.962
259.962
259.963
259.963
259.963
259.963
259.963
259.963
259.962
259.962
259.961
259.961
259.96
259.96
259.959
259.959
259.958
259.957
259.956
259.955
259.954
259.952
259.95
259.948
259.946
259.943
259.94
259.937
259.932
259.927
259.922
259.915
259.907
259.898
259.889
259.879
259.87
259.861
259.855
259.851
259.853
259.86
259.874
259.895
259.924
259.959
260.001
260.046
260.092
260.137
260.178
260.213
260.239
260.255
260.26
260.253
260.242
260.221
260.191
260.153
260.109
260.064
260.018
259.975
259.937
259.906
259.882
259.865
259.856
259.853
259.855
259.86
259.869
259.878
259.888
259.898
259.907
259.915
259.922
259.928
259.933
259.937
259.941
259.944
259.947
259.949
259.951
259.953
259.955
259.956
259.957
259.958
259.959
259.96
259.961
259.961
259.962
259.962
259.963
259.963
259.964
259.964
259.964
259.965
259.965
259.965
259.965
259.964
259.964
259.963
259.963
259.963
259.962
259.962
259.961
259.961
259.96
259.959
259.958
259.957
259.956
259.955
259.953
259.951
259.949
259.947
259.944
259.941
259.937
259.933
259.928
259.922
259.915
259.907
259.898
259.888
259.878
259.869
259.86
259.855
259.853
259.856
259.865
259.882
259.906
259.937
259.975
260.018
260.064
260.109
260.153
260.191
260.221
260.242
260.253
260.243
260.227
260.202
260.167
260.127
260.082
260.036
259.992
259.953
259.919
259.892
259.872
259.86
259.855
259.855
259.86
259.867
259.876
259.886
259.896
259.905
259.914
259.921
259.927
259.933
259.938
259.941